<?xml version="1.0" encoding="UTF-8"?>

<!-- generated on 03/03/19 11:07:11 by Eclipse SUMO GUI Version 1.1.0
<configuration xmlns:xsi="http://www.w3.org/2001/XMLSchema-instance" xsi:noNamespaceSchemaLocation="http://sumo.dlr.de/xsd/sumoConfiguration.xsd">

    <input>
        <net-file value="osm.net.xml"/>
        <route-files value="MySUMORoutesTest.rou.xml"/>
        <additional-files value="osm.poly.xml"/>
    </input>

    <output>
        <tripinfo-output value="output/tripinfo.xml"/>
    </output>

    <time>
        <step-length value="0.1"/>
    </time>

    <processing>
        <lateral-resolution value="1"/>
        <ignore-route-errors value="true"/>
        <scale value="3"/>
        <lanechange.overtake-right value="true"/>
        <default.action-step-length value="1"/>
    </processing>

    <routing>
        <device.rerouting.probability value="1"/>
        <device.rerouting.period value="1"/>
        <device.rerouting.adaptation-steps value="180"/>
        <device.rerouting.threads value="4"/>
    </routing>

    <report>
        <verbose value="true"/>
        <duration-log.statistics value="true"/>
        <no-step-log value="true"/>
    </report>

    <traci_server>
        <remote-port value="59058"/>
    </traci_server>

    <gui_only>
        <gui-settings-file value="osm.view.xml"/>
        <tracker-interval value="0.1"/>
    </gui_only>

</configuration>
-->

<tripinfos xmlns:xsi="http://www.w3.org/2001/XMLSchema-instance" xsi:noNamespaceSchemaLocation="http://sumo.dlr.de/xsd/tripinfo_file.xsd">
    <tripinfo id="bike_0.0.1" depart="9.70" departLane="-119417247#3_0" departPos="60.88" departPosLat="0.00" departSpeed="0.00" departDelay="-0.04" arrival="15.40" arrivalLane="-119417247#3_0" arrivalPos="75.94" arrivalPosLat="0.00" arrivalSpeed="4.85" duration="5.70" routeLength="15.06" waitingTime="0.00" waitingCount="0" stopTime="0.00" timeLoss="2.93" rerouteNo="0" devices="tripinfo_bike_0.0.1 routing_bike_0.0.1" vType="bike" speedFactor="1.13" vaporized=""/>
    <tripinfo id="bike_0.1.1" depart="18.30" departLane="-119417247#3_0" departPos="71.89" departPosLat="0.00" departSpeed="0.00" departDelay="-0.09" arrival="20.90" arrivalLane="-119417247#3_0" arrivalPos="75.94" arrivalPosLat="0.00" arrivalSpeed="3.01" duration="2.60" routeLength="4.05" waitingTime="0.00" waitingCount="0" stopTime="0.00" timeLoss="1.86" rerouteNo="0" devices="tripinfo_bike_0.1.1 routing_bike_0.1.1" vType="bike" speedFactor="1.00" vaporized=""/>
    <tripinfo id="bike_0.0" depart="9.70" departLane="-119417247#3_0" departPos="27.83" departPosLat="0.00" departSpeed="0.00" departDelay="-0.04" arrival="22.40" arrivalLane="-119417247#3_0" arrivalPos="75.94" arrivalPosLat="0.00" arrivalSpeed="3.78" duration="12.70" routeLength="48.11" waitingTime="0.00" waitingCount="0" stopTime="0.00" timeLoss="4.01" rerouteNo="0" devices="tripinfo_bike_0.0 routing_bike_0.0" vType="bike" speedFactor="0.95" vaporized=""/>
    <tripinfo id="bike_0.0.2" depart="9.70" departLane="-119417247#3_0" departPos="11.97" departPosLat="0.00" departSpeed="0.00" departDelay="-0.04" arrival="24.80" arrivalLane="-119417247#3_0" arrivalPos="75.94" arrivalPosLat="0.00" arrivalSpeed="5.49" duration="15.10" routeLength="63.97" waitingTime="0.00" waitingCount="0" stopTime="0.00" timeLoss="3.53" rerouteNo="0" devices="tripinfo_bike_0.0.2 routing_bike_0.0.2" vType="bike" speedFactor="0.93" vaporized=""/>
    <tripinfo id="bike_0.1.2" depart="18.30" departLane="-119417247#3_0" departPos="37.89" departPosLat="0.00" departSpeed="0.00" departDelay="-0.09" arrival="28.30" arrivalLane="-119417247#3_0" arrivalPos="75.94" arrivalPosLat="0.00" arrivalSpeed="5.41" duration="10.00" routeLength="38.05" waitingTime="0.00" waitingCount="0" stopTime="0.00" timeLoss="3.07" rerouteNo="0" devices="tripinfo_bike_0.1.2 routing_bike_0.1.2" vType="bike" speedFactor="0.90" vaporized=""/>
    <tripinfo id="bike_0.1" depart="18.30" departLane="-119417247#3_0" departPos="25.57" departPosLat="0.00" departSpeed="0.00" departDelay="-0.09" arrival="30.40" arrivalLane="-119417247#3_0" arrivalPos="75.94" arrivalPosLat="0.00" arrivalSpeed="5.23" duration="12.10" routeLength="50.37" waitingTime="0.00" waitingCount="0" stopTime="0.00" timeLoss="2.98" rerouteNo="0" devices="tripinfo_bike_0.1 routing_bike_0.1" vType="bike" speedFactor="1.00" vaporized=""/>
    <tripinfo id="bike_1.0" depart="18.10" departLane="-119417247#4_0" departPos="64.30" departPosLat="0.00" departSpeed="0.00" departDelay="-0.03" arrival="39.90" arrivalLane="-119417247#3_0" arrivalPos="75.94" arrivalPosLat="0.00" arrivalSpeed="5.10" duration="21.80" routeLength="99.28" waitingTime="0.00" waitingCount="0" stopTime="0.00" timeLoss="3.86" rerouteNo="0" devices="tripinfo_bike_1.0 routing_bike_1.0" vType="bike" speedFactor="1.17" vaporized=""/>
    <tripinfo id="bike_1.0.1" depart="18.10" departLane="-119417247#4_0" departPos="56.89" departPosLat="0.00" departSpeed="0.00" departDelay="-0.03" arrival="42.40" arrivalLane="-119417247#3_0" arrivalPos="75.94" arrivalPosLat="0.00" arrivalSpeed="5.32" duration="24.30" routeLength="106.69" waitingTime="0.00" waitingCount="0" stopTime="0.00" timeLoss="5.01" rerouteNo="0" devices="tripinfo_bike_1.0.1 routing_bike_1.0.1" vType="bike" speedFactor="1.02" vaporized=""/>
    <tripinfo id="bike_1.0.2" depart="18.10" departLane="-119417247#4_0" departPos="22.25" departPosLat="0.00" departSpeed="0.00" departDelay="-0.03" arrival="48.00" arrivalLane="-119417247#3_0" arrivalPos="75.94" arrivalPosLat="0.00" arrivalSpeed="5.50" duration="29.90" routeLength="141.33" waitingTime="0.00" waitingCount="0" stopTime="0.00" timeLoss="4.34" rerouteNo="0" devices="tripinfo_bike_1.0.2 routing_bike_1.0.2" vType="bike" speedFactor="1.10" vaporized=""/>
    <tripinfo id="bike_0.2" depart="55.60" departLane="-119417247#3_0" departPos="60.68" departPosLat="0.00" departSpeed="0.00" departDelay="-0.05" arrival="61.20" arrivalLane="-119417247#3_0" arrivalPos="75.94" arrivalPosLat="0.00" arrivalSpeed="5.01" duration="5.60" routeLength="15.26" waitingTime="0.00" waitingCount="0" stopTime="0.00" timeLoss="2.81" rerouteNo="0" devices="tripinfo_bike_0.2 routing_bike_0.2" vType="bike" speedFactor="1.03" vaporized=""/>
    <tripinfo id="bike_0.2.1" depart="55.60" departLane="-119417247#3_0" departPos="48.71" departPosLat="0.00" departSpeed="0.00" departDelay="-0.05" arrival="63.40" arrivalLane="-119417247#3_0" arrivalPos="75.94" arrivalPosLat="0.00" arrivalSpeed="5.29" duration="7.80" routeLength="27.23" waitingTime="0.00" waitingCount="0" stopTime="0.00" timeLoss="2.83" rerouteNo="0" devices="tripinfo_bike_0.2.1 routing_bike_0.2.1" vType="bike" speedFactor="0.82" vaporized=""/>
    <tripinfo id="bike_0.2.2" depart="55.60" departLane="-119417247#3_0" departPos="22.62" departPosLat="0.00" departSpeed="0.00" departDelay="-0.05" arrival="68.50" arrivalLane="-119417247#3_0" arrivalPos="75.94" arrivalPosLat="0.00" arrivalSpeed="5.03" duration="12.90" routeLength="53.32" waitingTime="0.00" waitingCount="0" stopTime="0.00" timeLoss="3.21" rerouteNo="0" devices="tripinfo_bike_0.2.2 routing_bike_0.2.2" vType="bike" speedFactor="1.12" vaporized=""/>
    <tripinfo id="bike_3.0" depart="0.70" departLane="167280591#13_0" departPos="107.57" departPosLat="0.00" departSpeed="0.00" departDelay="-0.09" arrival="130.20" arrivalLane="-119417247#3_0" arrivalPos="75.94" arrivalPosLat="0.00" arrivalSpeed="5.22" duration="129.50" routeLength="662.00" waitingTime="0.00" waitingCount="0" stopTime="0.00" timeLoss="10.26" rerouteNo="0" devices="tripinfo_bike_3.0 routing_bike_3.0" vType="bike" speedFactor="1.06" vaporized=""/>
    <tripinfo id="bike_3.0.1" depart="0.70" departLane="167280591#13_0" departPos="86.02" departPosLat="0.00" departSpeed="0.00" departDelay="-0.09" arrival="134.80" arrivalLane="-119417247#3_0" arrivalPos="75.94" arrivalPosLat="0.00" arrivalSpeed="5.27" duration="134.10" routeLength="683.55" waitingTime="0.00" waitingCount="0" stopTime="0.00" timeLoss="10.96" rerouteNo="0" devices="tripinfo_bike_3.0.1 routing_bike_3.0.1" vType="bike" speedFactor="0.94" vaporized=""/>
</tripinfos>
