<?xml version="1.0" encoding="UTF-8"?>

<!-- generated on 02/04/19 10:12:28 by Eclipse SUMO GUI Version 1.1.0
<configuration xmlns:xsi="http://www.w3.org/2001/XMLSchema-instance" xsi:noNamespaceSchemaLocation="http://sumo.dlr.de/xsd/sumoConfiguration.xsd">

    <input>
        <net-file value="osm.net.xml"/>
        <route-files value="MySUMORoutesTest.rou.xml"/>
        <additional-files value="osm.poly.xml"/>
    </input>

    <output>
        <tripinfo-output value="output/tripinfo.xml"/>
    </output>

    <time>
        <step-length value="0.1"/>
    </time>

    <processing>
        <lateral-resolution value="1"/>
        <ignore-route-errors value="true"/>
        <scale value="3"/>
        <lanechange.overtake-right value="true"/>
        <default.action-step-length value="1"/>
    </processing>

    <routing>
        <device.rerouting.probability value="1"/>
        <device.rerouting.period value="1"/>
        <device.rerouting.adaptation-steps value="180"/>
        <device.rerouting.threads value="4"/>
    </routing>

    <report>
        <verbose value="true"/>
        <duration-log.statistics value="true"/>
        <no-step-log value="true"/>
    </report>

    <traci_server>
        <remote-port value="56017"/>
    </traci_server>

    <gui_only>
        <gui-settings-file value="osm.view.xml"/>
        <tracker-interval value="0.1"/>
    </gui_only>

</configuration>
-->

<tripinfos xmlns:xsi="http://www.w3.org/2001/XMLSchema-instance" xsi:noNamespaceSchemaLocation="http://sumo.dlr.de/xsd/tripinfo_file.xsd">
    <tripinfo id="bike_0.0.1" depart="9.70" departLane="-119417247#3_0" departPos="60.88" departPosLat="0.00" departSpeed="0.00" departDelay="-0.04" arrival="15.40" arrivalLane="-119417247#3_0" arrivalPos="75.94" arrivalPosLat="0.00" arrivalSpeed="4.85" duration="5.70" routeLength="15.06" waitingTime="0.00" waitingCount="0" stopTime="0.00" timeLoss="2.93" rerouteNo="0" devices="tripinfo_bike_0.0.1 routing_bike_0.0.1" vType="bike" speedFactor="1.13" vaporized=""/>
    <tripinfo id="bike_0.1.1" depart="18.30" departLane="-119417247#3_0" departPos="71.89" departPosLat="0.00" departSpeed="0.00" departDelay="-0.09" arrival="20.90" arrivalLane="-119417247#3_0" arrivalPos="75.94" arrivalPosLat="0.00" arrivalSpeed="3.01" duration="2.60" routeLength="4.05" waitingTime="0.00" waitingCount="0" stopTime="0.00" timeLoss="1.86" rerouteNo="0" devices="tripinfo_bike_0.1.1 routing_bike_0.1.1" vType="bike" speedFactor="1.00" vaporized=""/>
    <tripinfo id="bike_0.0" depart="9.70" departLane="-119417247#3_0" departPos="27.83" departPosLat="0.00" departSpeed="0.00" departDelay="-0.04" arrival="22.40" arrivalLane="-119417247#3_0" arrivalPos="75.94" arrivalPosLat="0.00" arrivalSpeed="3.78" duration="12.70" routeLength="48.11" waitingTime="0.00" waitingCount="0" stopTime="0.00" timeLoss="4.01" rerouteNo="0" devices="tripinfo_bike_0.0 routing_bike_0.0" vType="bike" speedFactor="0.95" vaporized=""/>
    <tripinfo id="bike_0.0.2" depart="9.70" departLane="-119417247#3_0" departPos="11.97" departPosLat="0.00" departSpeed="0.00" departDelay="-0.04" arrival="24.80" arrivalLane="-119417247#3_0" arrivalPos="75.94" arrivalPosLat="0.00" arrivalSpeed="5.49" duration="15.10" routeLength="63.97" waitingTime="0.00" waitingCount="0" stopTime="0.00" timeLoss="3.53" rerouteNo="0" devices="tripinfo_bike_0.0.2 routing_bike_0.0.2" vType="bike" speedFactor="0.93" vaporized=""/>
    <tripinfo id="bike_0.1.2" depart="18.30" departLane="-119417247#3_0" departPos="37.89" departPosLat="0.00" departSpeed="0.00" departDelay="-0.09" arrival="28.30" arrivalLane="-119417247#3_0" arrivalPos="75.94" arrivalPosLat="0.00" arrivalSpeed="5.41" duration="10.00" routeLength="38.05" waitingTime="0.00" waitingCount="0" stopTime="0.00" timeLoss="3.07" rerouteNo="0" devices="tripinfo_bike_0.1.2 routing_bike_0.1.2" vType="bike" speedFactor="0.90" vaporized=""/>
    <tripinfo id="bike_0.1" depart="18.30" departLane="-119417247#3_0" departPos="25.57" departPosLat="0.00" departSpeed="0.00" departDelay="-0.09" arrival="30.40" arrivalLane="-119417247#3_0" arrivalPos="75.94" arrivalPosLat="0.00" arrivalSpeed="5.23" duration="12.10" routeLength="50.37" waitingTime="0.00" waitingCount="0" stopTime="0.00" timeLoss="2.98" rerouteNo="0" devices="tripinfo_bike_0.1 routing_bike_0.1" vType="bike" speedFactor="1.00" vaporized=""/>
    <tripinfo id="bike_1.0" depart="18.10" departLane="-119417247#4_0" departPos="64.30" departPosLat="0.00" departSpeed="0.00" departDelay="-0.03" arrival="39.90" arrivalLane="-119417247#3_0" arrivalPos="75.94" arrivalPosLat="0.00" arrivalSpeed="5.10" duration="21.80" routeLength="99.28" waitingTime="0.00" waitingCount="0" stopTime="0.00" timeLoss="3.86" rerouteNo="0" devices="tripinfo_bike_1.0 routing_bike_1.0" vType="bike" speedFactor="1.17" vaporized=""/>
    <tripinfo id="bike_1.0.1" depart="18.10" departLane="-119417247#4_0" departPos="56.89" departPosLat="0.00" departSpeed="0.00" departDelay="-0.03" arrival="42.40" arrivalLane="-119417247#3_0" arrivalPos="75.94" arrivalPosLat="0.00" arrivalSpeed="5.32" duration="24.30" routeLength="106.69" waitingTime="0.00" waitingCount="0" stopTime="0.00" timeLoss="5.01" rerouteNo="0" devices="tripinfo_bike_1.0.1 routing_bike_1.0.1" vType="bike" speedFactor="1.02" vaporized=""/>
    <tripinfo id="bike_1.0.2" depart="18.10" departLane="-119417247#4_0" departPos="22.25" departPosLat="0.00" departSpeed="0.00" departDelay="-0.03" arrival="48.00" arrivalLane="-119417247#3_0" arrivalPos="75.94" arrivalPosLat="0.00" arrivalSpeed="5.50" duration="29.90" routeLength="141.33" waitingTime="0.00" waitingCount="0" stopTime="0.00" timeLoss="4.34" rerouteNo="0" devices="tripinfo_bike_1.0.2 routing_bike_1.0.2" vType="bike" speedFactor="1.10" vaporized=""/>
    <tripinfo id="bike_0.2" depart="55.60" departLane="-119417247#3_0" departPos="60.68" departPosLat="0.00" departSpeed="0.00" departDelay="-0.05" arrival="61.20" arrivalLane="-119417247#3_0" arrivalPos="75.94" arrivalPosLat="0.00" arrivalSpeed="5.01" duration="5.60" routeLength="15.26" waitingTime="0.00" waitingCount="0" stopTime="0.00" timeLoss="2.81" rerouteNo="0" devices="tripinfo_bike_0.2 routing_bike_0.2" vType="bike" speedFactor="1.03" vaporized=""/>
    <tripinfo id="bike_0.2.1" depart="55.60" departLane="-119417247#3_0" departPos="48.71" departPosLat="0.00" departSpeed="0.00" departDelay="-0.05" arrival="63.40" arrivalLane="-119417247#3_0" arrivalPos="75.94" arrivalPosLat="0.00" arrivalSpeed="5.29" duration="7.80" routeLength="27.23" waitingTime="0.00" waitingCount="0" stopTime="0.00" timeLoss="2.83" rerouteNo="0" devices="tripinfo_bike_0.2.1 routing_bike_0.2.1" vType="bike" speedFactor="0.82" vaporized=""/>
    <tripinfo id="bike_0.2.2" depart="55.60" departLane="-119417247#3_0" departPos="22.62" departPosLat="0.00" departSpeed="0.00" departDelay="-0.05" arrival="68.50" arrivalLane="-119417247#3_0" arrivalPos="75.94" arrivalPosLat="0.00" arrivalSpeed="5.03" duration="12.90" routeLength="53.32" waitingTime="0.00" waitingCount="0" stopTime="0.00" timeLoss="3.21" rerouteNo="0" devices="tripinfo_bike_0.2.2 routing_bike_0.2.2" vType="bike" speedFactor="1.12" vaporized=""/>
    <tripinfo id="bike_3.0" depart="0.70" departLane="167280591#13_0" departPos="107.57" departPosLat="0.00" departSpeed="0.00" departDelay="-0.09" arrival="130.20" arrivalLane="-119417247#3_0" arrivalPos="75.94" arrivalPosLat="0.00" arrivalSpeed="5.22" duration="129.50" routeLength="662.00" waitingTime="0.00" waitingCount="0" stopTime="0.00" timeLoss="10.26" rerouteNo="0" devices="tripinfo_bike_3.0 routing_bike_3.0" vType="bike" speedFactor="1.06" vaporized=""/>
    <tripinfo id="bike_3.0.1" depart="0.70" departLane="167280591#13_0" departPos="86.02" departPosLat="0.00" departSpeed="0.00" departDelay="-0.09" arrival="134.80" arrivalLane="-119417247#3_0" arrivalPos="75.94" arrivalPosLat="0.00" arrivalSpeed="5.27" duration="134.10" routeLength="683.55" waitingTime="0.00" waitingCount="0" stopTime="0.00" timeLoss="10.96" rerouteNo="0" devices="tripinfo_bike_3.0.1 routing_bike_3.0.1" vType="bike" speedFactor="0.94" vaporized=""/>
    <tripinfo id="bike_3.1.2" depart="13.50" departLane="167280591#13_0" departPos="108.74" departPosLat="0.00" departSpeed="0.00" departDelay="-0.06" arrival="142.80" arrivalLane="-119417247#3_0" arrivalPos="75.94" arrivalPosLat="0.00" arrivalSpeed="5.06" duration="129.30" routeLength="660.83" waitingTime="0.00" waitingCount="0" stopTime="0.00" timeLoss="10.24" rerouteNo="0" devices="tripinfo_bike_3.1.2 routing_bike_3.1.2" vType="bike" speedFactor="1.04" vaporized=""/>
    <tripinfo id="bike_3.1" depart="13.50" departLane="167280591#13_0" departPos="101.06" departPosLat="0.00" departSpeed="0.00" departDelay="-0.06" arrival="144.10" arrivalLane="-119417247#3_0" arrivalPos="75.94" arrivalPosLat="0.00" arrivalSpeed="5.17" duration="130.60" routeLength="668.51" waitingTime="0.00" waitingCount="0" stopTime="0.00" timeLoss="10.24" rerouteNo="0" devices="tripinfo_bike_3.1 routing_bike_3.1" vType="bike" speedFactor="1.09" vaporized=""/>
    <tripinfo id="bike_3.0.2" depart="0.70" departLane="167280591#13_0" departPos="5.49" departPosLat="0.00" departSpeed="0.00" departDelay="-0.09" arrival="150.60" arrivalLane="-119417247#3_0" arrivalPos="75.94" arrivalPosLat="0.00" arrivalSpeed="5.16" duration="149.90" routeLength="764.08" waitingTime="0.00" waitingCount="0" stopTime="0.00" timeLoss="12.32" rerouteNo="0" devices="tripinfo_bike_3.0.2 routing_bike_3.0.2" vType="bike" speedFactor="1.01" vaporized=""/>
    <tripinfo id="bike_3.1.1" depart="13.50" departLane="167280591#13_0" departPos="51.05" departPosLat="0.00" departSpeed="0.00" departDelay="-0.06" arrival="154.30" arrivalLane="-119417247#3_0" arrivalPos="75.94" arrivalPosLat="0.00" arrivalSpeed="5.29" duration="140.80" routeLength="718.52" waitingTime="0.00" waitingCount="0" stopTime="0.00" timeLoss="11.40" rerouteNo="0" devices="tripinfo_bike_3.1.1 routing_bike_3.1.1" vType="bike" speedFactor="1.04" vaporized=""/>
    <tripinfo id="bike_0.3.2" depart="163.00" departLane="-119417247#3_0" departPos="63.79" departPosLat="0.00" departSpeed="0.00" departDelay="-0.02" arrival="167.80" arrivalLane="-119417247#3_0" arrivalPos="75.94" arrivalPosLat="0.00" arrivalSpeed="4.59" duration="4.80" routeLength="12.15" waitingTime="0.00" waitingCount="0" stopTime="0.00" timeLoss="2.57" rerouteNo="0" devices="tripinfo_bike_0.3.2 routing_bike_0.3.2" vType="bike" speedFactor="1.09" vaporized=""/>
    <tripinfo id="bike_0.3" depart="163.00" departLane="-119417247#3_0" departPos="60.48" departPosLat="0.00" departSpeed="0.00" departDelay="-0.02" arrival="169.20" arrivalLane="-119417247#3_0" arrivalPos="75.94" arrivalPosLat="0.00" arrivalSpeed="4.90" duration="6.20" routeLength="15.46" waitingTime="0.00" waitingCount="0" stopTime="0.00" timeLoss="3.32" rerouteNo="0" devices="tripinfo_bike_0.3 routing_bike_0.3" vType="bike" speedFactor="1.05" vaporized=""/>
    <tripinfo id="bike_0.3.1" depart="163.00" departLane="-119417247#3_0" departPos="53.56" departPosLat="0.00" departSpeed="0.00" departDelay="-0.02" arrival="170.50" arrivalLane="-119417247#3_0" arrivalPos="75.94" arrivalPosLat="0.00" arrivalSpeed="5.20" duration="7.50" routeLength="22.38" waitingTime="0.00" waitingCount="0" stopTime="0.00" timeLoss="3.39" rerouteNo="0" devices="tripinfo_bike_0.3.1 routing_bike_0.3.1" vType="bike" speedFactor="0.90" vaporized=""/>
    <tripinfo id="bike_1.1.1" depart="158.60" departLane="-119417247#4_0" departPos="65.63" departPosLat="0.00" departSpeed="0.00" departDelay="-0.09" arrival="179.60" arrivalLane="-119417247#3_0" arrivalPos="75.94" arrivalPosLat="0.00" arrivalSpeed="5.54" duration="21.00" routeLength="97.95" waitingTime="0.00" waitingCount="0" stopTime="0.00" timeLoss="3.32" rerouteNo="0" devices="tripinfo_bike_1.1.1 routing_bike_1.1.1" vType="bike" speedFactor="0.98" vaporized=""/>
    <tripinfo id="bike_1.1.2" depart="158.60" departLane="-119417247#4_0" departPos="41.36" departPosLat="0.00" departSpeed="0.00" departDelay="-0.09" arrival="185.30" arrivalLane="-119417247#3_0" arrivalPos="75.94" arrivalPosLat="0.00" arrivalSpeed="5.02" duration="26.70" routeLength="122.22" waitingTime="0.00" waitingCount="0" stopTime="0.00" timeLoss="4.66" rerouteNo="0" devices="tripinfo_bike_1.1.2 routing_bike_1.1.2" vType="bike" speedFactor="0.96" vaporized=""/>
    <tripinfo id="bike_1.1" depart="158.60" departLane="-119417247#4_0" departPos="23.17" departPosLat="0.00" departSpeed="0.00" departDelay="-0.09" arrival="188.40" arrivalLane="-119417247#3_0" arrivalPos="75.94" arrivalPosLat="0.00" arrivalSpeed="5.16" duration="29.80" routeLength="140.41" waitingTime="0.00" waitingCount="0" stopTime="0.00" timeLoss="4.41" rerouteNo="0" devices="tripinfo_bike_1.1 routing_bike_1.1" vType="bike" speedFactor="1.04" vaporized=""/>
    <tripinfo id="DynamicVeh_100" depart="10.00" departLane="startEdge_0" departPos="5.10" departPosLat="0.00" departSpeed="0.00" departDelay="0.00" arrival="200.10" arrivalLane="endEdge_1" arrivalPos="96.18" arrivalPosLat="-0.00" arrivalSpeed="21.10" duration="190.10" routeLength="1598.91" waitingTime="0.00" waitingCount="0" stopTime="0.00" timeLoss="103.77" rerouteNo="1" devices="tripinfo_DynamicVeh_100 routing_DynamicVeh_100" vType="DEFAULT_VEHTYPE" speedFactor="1.08" vaporized=""/>
    <tripinfo id="bike_5.0" depart="22.70" departLane="298742258#12_0" departPos="46.03" departPosLat="0.00" departSpeed="0.00" departDelay="-0.01" arrival="202.90" arrivalLane="-119417247#3_0" arrivalPos="75.94" arrivalPosLat="0.00" arrivalSpeed="5.24" duration="180.20" routeLength="902.32" waitingTime="0.00" waitingCount="0" stopTime="0.00" timeLoss="17.68" rerouteNo="0" devices="tripinfo_bike_5.0 routing_bike_5.0" vType="bike" speedFactor="1.02" vaporized=""/>
    <tripinfo id="DynamicVeh_200" depart="20.00" departLane="startEdge_0" departPos="5.10" departPosLat="0.00" departSpeed="0.00" departDelay="0.00" arrival="204.00" arrivalLane="endEdge_1" arrivalPos="96.18" arrivalPosLat="-0.00" arrivalSpeed="18.82" duration="184.00" routeLength="1598.91" waitingTime="0.00" waitingCount="0" stopTime="0.00" timeLoss="100.51" rerouteNo="1" devices="tripinfo_DynamicVeh_200 routing_DynamicVeh_200" vType="DEFAULT_VEHTYPE" speedFactor="1.12" vaporized=""/>
    <tripinfo id="bike_5.0.1" depart="22.70" departLane="298742258#12_0" departPos="42.29" departPosLat="0.00" departSpeed="0.00" departDelay="-0.01" arrival="204.80" arrivalLane="-119417247#3_0" arrivalPos="75.94" arrivalPosLat="0.00" arrivalSpeed="5.31" duration="182.10" routeLength="906.06" waitingTime="0.00" waitingCount="0" stopTime="0.00" timeLoss="18.89" rerouteNo="0" devices="tripinfo_bike_5.0.1 routing_bike_5.0.1" vType="bike" speedFactor="1.02" vaporized=""/>
    <tripinfo id="bike_5.0.2" depart="22.70" departLane="298742258#12_0" departPos="30.65" departPosLat="0.00" departSpeed="0.00" departDelay="-0.01" arrival="206.60" arrivalLane="-119417247#3_0" arrivalPos="75.94" arrivalPosLat="0.00" arrivalSpeed="5.50" duration="183.90" routeLength="917.70" waitingTime="0.00" waitingCount="0" stopTime="0.00" timeLoss="18.59" rerouteNo="0" devices="tripinfo_bike_5.0.2 routing_bike_5.0.2" vType="bike" speedFactor="0.97" vaporized=""/>
    <tripinfo id="bike_11.0.1" depart="11.10" departLane="122546198#0_0" departPos="67.97" departPosLat="0.00" departSpeed="0.00" departDelay="-0.02" arrival="213.80" arrivalLane="-119417247#3_0" arrivalPos="75.94" arrivalPosLat="0.00" arrivalSpeed="5.27" duration="202.70" routeLength="1039.45" waitingTime="0.00" waitingCount="0" stopTime="0.00" timeLoss="15.52" rerouteNo="0" devices="tripinfo_bike_11.0.1 routing_bike_11.0.1" vType="bike" speedFactor="1.15" vaporized=""/>
    <tripinfo id="bike_7.0" depart="2.30" departLane="127152801#1_0" departPos="73.10" departPosLat="0.00" departSpeed="0.00" departDelay="-0.06" arrival="217.30" arrivalLane="-119417247#3_0" arrivalPos="75.94" arrivalPosLat="0.00" arrivalSpeed="5.15" duration="215.00" routeLength="1092.66" waitingTime="0.00" waitingCount="0" stopTime="0.00" timeLoss="18.28" rerouteNo="0" devices="tripinfo_bike_7.0 routing_bike_7.0" vType="bike" speedFactor="1.08" vaporized=""/>
    <tripinfo id="bike_11.0.2" depart="11.10" departLane="122546198#0_0" departPos="26.50" departPosLat="0.00" departSpeed="0.00" departDelay="-0.02" arrival="221.30" arrivalLane="-119417247#3_0" arrivalPos="75.94" arrivalPosLat="0.00" arrivalSpeed="5.05" duration="210.20" routeLength="1080.92" waitingTime="0.00" waitingCount="0" stopTime="0.00" timeLoss="15.57" rerouteNo="0" devices="tripinfo_bike_11.0.2 routing_bike_11.0.2" vType="bike" speedFactor="1.01" vaporized=""/>
    <tripinfo id="bike_11.0" depart="11.10" departLane="122546198#0_0" departPos="22.47" departPosLat="0.00" departSpeed="0.00" departDelay="-0.02" arrival="225.00" arrivalLane="-119417247#3_0" arrivalPos="75.94" arrivalPosLat="0.00" arrivalSpeed="5.21" duration="213.90" routeLength="1084.95" waitingTime="0.00" waitingCount="0" stopTime="0.00" timeLoss="18.54" rerouteNo="0" devices="tripinfo_bike_11.0 routing_bike_11.0" vType="bike" speedFactor="1.18" vaporized=""/>
    <tripinfo id="bike_7.0.2" depart="2.30" departLane="127152801#1_0" departPos="66.03" departPosLat="0.00" departSpeed="0.00" departDelay="-0.06" arrival="231.10" arrivalLane="-119417247#3_0" arrivalPos="75.94" arrivalPosLat="0.00" arrivalSpeed="5.18" duration="228.80" routeLength="1099.73" waitingTime="6.30" waitingCount="2" stopTime="0.00" timeLoss="30.66" rerouteNo="0" devices="tripinfo_bike_7.0.2 routing_bike_7.0.2" vType="bike" speedFactor="0.83" vaporized=""/>
    <tripinfo id="bike_2.0.2" depart="27.40" departLane="-125565889#2_0" departPos="78.87" departPosLat="0.00" departSpeed="0.00" departDelay="-0.08" arrival="231.10" arrivalLane="-119417247#3_0" arrivalPos="75.94" arrivalPosLat="-1.30" arrivalSpeed="5.40" duration="203.70" routeLength="935.29" waitingTime="8.70" waitingCount="3" stopTime="0.00" timeLoss="35.33" rerouteNo="0" devices="tripinfo_bike_2.0.2 routing_bike_2.0.2" vType="bike" speedFactor="0.97" vaporized=""/>
    <tripinfo id="bike_2.0" depart="27.40" departLane="-125565889#2_0" departPos="36.49" departPosLat="0.00" departSpeed="0.00" departDelay="-0.08" arrival="231.20" arrivalLane="-119417247#3_0" arrivalPos="75.94" arrivalPosLat="1.10" arrivalSpeed="5.31" duration="203.80" routeLength="977.67" waitingTime="2.50" waitingCount="2" stopTime="0.00" timeLoss="27.72" rerouteNo="0" devices="tripinfo_bike_2.0 routing_bike_2.0" vType="bike" speedFactor="1.00" vaporized=""/>
    <tripinfo id="bike_4.0" depart="16.70" departLane="167280591#16_0" departPos="24.45" departPosLat="0.00" departSpeed="0.00" departDelay="-0.02" arrival="236.80" arrivalLane="-119417247#3_0" arrivalPos="75.94" arrivalPosLat="0.00" arrivalSpeed="5.05" duration="220.10" routeLength="1120.60" waitingTime="0.00" waitingCount="0" stopTime="0.00" timeLoss="18.31" rerouteNo="0" devices="tripinfo_bike_4.0 routing_bike_4.0" vType="bike" speedFactor="1.09" vaporized=""/>
    <tripinfo id="DynamicVeh_300" depart="30.00" departLane="startEdge_0" departPos="5.10" departPosLat="0.00" departSpeed="0.00" departDelay="0.00" arrival="237.00" arrivalLane="endEdge_1" arrivalPos="96.18" arrivalPosLat="-0.00" arrivalSpeed="19.37" duration="207.00" routeLength="1598.91" waitingTime="0.20" waitingCount="1" stopTime="0.00" timeLoss="98.83" rerouteNo="1" devices="tripinfo_DynamicVeh_300 routing_DynamicVeh_300" vType="DEFAULT_VEHTYPE" speedFactor="0.86" vaporized=""/>
    <tripinfo id="bike_4.0.2" depart="16.70" departLane="167280591#16_0" departPos="20.59" departPosLat="0.00" departSpeed="0.00" departDelay="-0.02" arrival="238.20" arrivalLane="-119417247#3_0" arrivalPos="75.94" arrivalPosLat="0.00" arrivalSpeed="5.23" duration="221.50" routeLength="1124.46" waitingTime="0.00" waitingCount="0" stopTime="0.00" timeLoss="18.95" rerouteNo="0" devices="tripinfo_bike_4.0.2 routing_bike_4.0.2" vType="bike" speedFactor="0.90" vaporized=""/>
    <tripinfo id="bike_4.0.1" depart="16.70" departLane="167280591#16_0" departPos="3.89" departPosLat="0.00" departSpeed="0.00" departDelay="-0.02" arrival="239.90" arrivalLane="-119417247#3_0" arrivalPos="75.94" arrivalPosLat="0.00" arrivalSpeed="5.32" duration="223.20" routeLength="1141.16" waitingTime="0.00" waitingCount="0" stopTime="0.00" timeLoss="17.67" rerouteNo="0" devices="tripinfo_bike_4.0.1 routing_bike_4.0.1" vType="bike" speedFactor="1.00" vaporized=""/>
    <tripinfo id="DynamicVeh_400" depart="40.00" departLane="startEdge_0" departPos="5.10" departPosLat="0.00" departSpeed="0.00" departDelay="0.00" arrival="240.10" arrivalLane="endEdge_1" arrivalPos="96.18" arrivalPosLat="-0.00" arrivalSpeed="20.22" duration="200.10" routeLength="1598.91" waitingTime="0.30" waitingCount="2" stopTime="0.00" timeLoss="104.29" rerouteNo="1" devices="tripinfo_DynamicVeh_400 routing_DynamicVeh_400" vType="DEFAULT_VEHTYPE" speedFactor="0.97" vaporized=""/>
    <tripinfo id="bike_7.1.1" depart="13.00" departLane="127152801#1_0" departPos="24.47" departPosLat="0.00" departSpeed="0.00" departDelay="-0.05" arrival="245.60" arrivalLane="-119417247#3_0" arrivalPos="75.94" arrivalPosLat="1.10" arrivalSpeed="5.22" duration="232.60" routeLength="1141.29" waitingTime="3.60" waitingCount="2" stopTime="0.00" timeLoss="27.08" rerouteNo="0" devices="tripinfo_bike_7.1.1 routing_bike_7.1.1" vType="bike" speedFactor="1.03" vaporized=""/>
    <tripinfo id="bike_2.0.1" depart="27.40" departLane="-125565889#2_0" departPos="40.48" departPosLat="0.00" departSpeed="0.00" departDelay="-0.08" arrival="246.10" arrivalLane="-119417247#3_0" arrivalPos="75.94" arrivalPosLat="0.00" arrivalSpeed="5.12" duration="218.70" routeLength="973.68" waitingTime="15.80" waitingCount="4" stopTime="0.00" timeLoss="43.40" rerouteNo="0" devices="tripinfo_bike_2.0.1 routing_bike_2.0.1" vType="bike" speedFactor="1.02" vaporized=""/>
    <tripinfo id="bike_7.0.1" depart="2.30" departLane="127152801#1_0" departPos="0.59" departPosLat="0.00" departSpeed="0.00" departDelay="-0.06" arrival="246.20" arrivalLane="-119417247#3_0" arrivalPos="75.94" arrivalPosLat="-1.30" arrivalSpeed="5.01" duration="243.90" routeLength="1165.17" waitingTime="8.70" waitingCount="3" stopTime="0.00" timeLoss="34.11" rerouteNo="0" devices="tripinfo_bike_7.0.1 routing_bike_7.0.1" vType="bike" speedFactor="1.03" vaporized=""/>
    <tripinfo id="bike_7.1" depart="13.00" departLane="127152801#1_0" departPos="6.19" departPosLat="0.00" departSpeed="0.00" departDelay="-0.05" arrival="247.30" arrivalLane="-119417247#3_0" arrivalPos="75.94" arrivalPosLat="0.50" arrivalSpeed="5.29" duration="234.30" routeLength="1159.57" waitingTime="1.90" waitingCount="2" stopTime="0.00" timeLoss="25.49" rerouteNo="0" devices="tripinfo_bike_7.1 routing_bike_7.1" vType="bike" speedFactor="0.90" vaporized=""/>
    <tripinfo id="bike_7.1.2" depart="13.00" departLane="127152801#1_0" departPos="4.23" departPosLat="0.00" departSpeed="0.00" departDelay="-0.05" arrival="248.00" arrivalLane="-119417247#3_0" arrivalPos="75.94" arrivalPosLat="0.00" arrivalSpeed="5.15" duration="235.00" routeLength="1161.53" waitingTime="0.60" waitingCount="1" stopTime="0.00" timeLoss="25.84" rerouteNo="0" devices="tripinfo_bike_7.1.2 routing_bike_7.1.2" vType="bike" speedFactor="0.96" vaporized=""/>
    <tripinfo id="DynamicVeh_500" depart="50.00" departLane="startEdge_0" departPos="5.10" departPosLat="0.00" departSpeed="0.00" departDelay="0.00" arrival="251.90" arrivalLane="endEdge_1" arrivalPos="96.18" arrivalPosLat="-0.00" arrivalSpeed="20.65" duration="201.90" routeLength="1598.91" waitingTime="0.30" waitingCount="1" stopTime="0.00" timeLoss="116.95" rerouteNo="1" devices="tripinfo_DynamicVeh_500 routing_DynamicVeh_500" vType="DEFAULT_VEHTYPE" speedFactor="1.10" vaporized=""/>
    <tripinfo id="bike_15.0" depart="8.50" departLane="120209283#1_0" departPos="65.65" departPosLat="0.00" departSpeed="0.00" departDelay="-0.05" arrival="254.10" arrivalLane="-119417247#3_0" arrivalPos="75.94" arrivalPosLat="0.00" arrivalSpeed="5.30" duration="245.60" routeLength="1234.12" waitingTime="1.90" waitingCount="1" stopTime="0.00" timeLoss="23.42" rerouteNo="0" devices="tripinfo_bike_15.0 routing_bike_15.0" vType="bike" speedFactor="1.01" vaporized=""/>
    <tripinfo id="bike_6.0.1" depart="39.00" departLane="-113540626_0" departPos="61.21" departPosLat="0.00" departSpeed="0.00" departDelay="-0.03" arrival="254.30" arrivalLane="-119417247#3_0" arrivalPos="75.94" arrivalPosLat="1.07" arrivalSpeed="5.39" duration="215.30" routeLength="1050.69" waitingTime="0.40" waitingCount="1" stopTime="0.00" timeLoss="26.11" rerouteNo="0" devices="tripinfo_bike_6.0.1 routing_bike_6.0.1" vType="bike" speedFactor="1.07" vaporized=""/>
    <tripinfo id="DynamicVeh_600" depart="60.00" departLane="startEdge_0" departPos="5.10" departPosLat="0.00" departSpeed="0.00" departDelay="0.00" arrival="259.70" arrivalLane="endEdge_1" arrivalPos="96.18" arrivalPosLat="0.00" arrivalSpeed="19.87" duration="199.70" routeLength="1598.91" waitingTime="0.10" waitingCount="1" stopTime="0.00" timeLoss="93.73" rerouteNo="1" devices="tripinfo_DynamicVeh_600 routing_DynamicVeh_600" vType="DEFAULT_VEHTYPE" speedFactor="0.88" vaporized=""/>
    <tripinfo id="bike_9.0" depart="36.80" departLane="406471828#1_0" departPos="41.37" departPosLat="0.00" departSpeed="0.00" departDelay="-0.06" arrival="259.90" arrivalLane="-119417247#3_0" arrivalPos="75.94" arrivalPosLat="0.00" arrivalSpeed="5.33" duration="223.10" routeLength="1138.13" waitingTime="0.00" waitingCount="0" stopTime="0.00" timeLoss="18.18" rerouteNo="0" devices="tripinfo_bike_9.0 routing_bike_9.0" vType="bike" speedFactor="1.02" vaporized=""/>
    <tripinfo id="DynamicVeh_700" depart="70.00" departLane="startEdge_0" departPos="5.10" departPosLat="0.00" departSpeed="0.00" departDelay="0.00" arrival="263.30" arrivalLane="endEdge_1" arrivalPos="96.18" arrivalPosLat="0.00" arrivalSpeed="20.92" duration="193.30" routeLength="1598.91" waitingTime="0.20" waitingCount="1" stopTime="0.00" timeLoss="112.34" rerouteNo="1" devices="tripinfo_DynamicVeh_700 routing_DynamicVeh_700" vType="DEFAULT_VEHTYPE" speedFactor="1.15" vaporized=""/>
    <tripinfo id="bike_4.1" depart="47.00" departLane="167280591#16_0" departPos="11.81" departPosLat="0.00" departSpeed="0.00" departDelay="-0.01" arrival="267.30" arrivalLane="-119417247#3_0" arrivalPos="75.94" arrivalPosLat="0.00" arrivalSpeed="5.07" duration="220.30" routeLength="1133.24" waitingTime="0.00" waitingCount="0" stopTime="0.00" timeLoss="16.28" rerouteNo="0" devices="tripinfo_bike_4.1 routing_bike_4.1" vType="bike" speedFactor="1.07" vaporized=""/>
    <tripinfo id="DynamicVeh_800" depart="80.00" departLane="startEdge_0" departPos="5.10" departPosLat="0.00" departSpeed="0.00" departDelay="0.00" arrival="267.40" arrivalLane="endEdge_1" arrivalPos="96.18" arrivalPosLat="0.00" arrivalSpeed="19.86" duration="187.40" routeLength="1598.91" waitingTime="0.20" waitingCount="1" stopTime="0.00" timeLoss="105.98" rerouteNo="1" devices="tripinfo_DynamicVeh_800 routing_DynamicVeh_800" vType="DEFAULT_VEHTYPE" speedFactor="1.14" vaporized=""/>
    <tripinfo id="bike_4.1.1" depart="47.00" departLane="167280591#16_0" departPos="10.44" departPosLat="0.00" departSpeed="0.00" departDelay="-0.01" arrival="270.90" arrivalLane="-119417247#3_0" arrivalPos="75.94" arrivalPosLat="0.00" arrivalSpeed="5.07" duration="223.90" routeLength="1134.61" waitingTime="0.20" waitingCount="1" stopTime="0.00" timeLoss="19.64" rerouteNo="0" devices="tripinfo_bike_4.1.1 routing_bike_4.1.1" vType="bike" speedFactor="1.01" vaporized=""/>
    <tripinfo id="DynamicVeh_900" depart="90.00" departLane="startEdge_0" departPos="5.10" departPosLat="0.00" departSpeed="0.00" departDelay="0.00" arrival="271.40" arrivalLane="endEdge_1" arrivalPos="96.18" arrivalPosLat="0.00" arrivalSpeed="19.96" duration="181.40" routeLength="1598.91" waitingTime="0.10" waitingCount="1" stopTime="0.00" timeLoss="90.13" rerouteNo="1" devices="tripinfo_DynamicVeh_900 routing_DynamicVeh_900" vType="DEFAULT_VEHTYPE" speedFactor="1.02" vaporized=""/>
    <tripinfo id="bike_4.1.2" depart="47.00" departLane="167280591#16_0" departPos="1.10" departPosLat="0.00" departSpeed="0.00" departDelay="-0.01" arrival="273.30" arrivalLane="-119417247#3_0" arrivalPos="75.94" arrivalPosLat="0.00" arrivalSpeed="5.16" duration="226.30" routeLength="1143.95" waitingTime="0.00" waitingCount="0" stopTime="0.00" timeLoss="20.30" rerouteNo="0" devices="tripinfo_bike_4.1.2 routing_bike_4.1.2" vType="bike" speedFactor="1.03" vaporized=""/>
    <tripinfo id="DynamicVeh_1000" depart="100.00" departLane="startEdge_0" departPos="5.10" departPosLat="0.00" departSpeed="0.00" departDelay="0.00" arrival="275.50" arrivalLane="endEdge_1" arrivalPos="96.18" arrivalPosLat="0.00" arrivalSpeed="20.01" duration="175.50" routeLength="1598.91" waitingTime="0.30" waitingCount="1" stopTime="0.00" timeLoss="80.36" rerouteNo="1" devices="tripinfo_DynamicVeh_1000 routing_DynamicVeh_1000" vType="DEFAULT_VEHTYPE" speedFactor="0.98" vaporized=""/>
    <tripinfo id="bike_6.0" depart="39.00" departLane="-113540626_0" departPos="79.58" departPosLat="0.00" departSpeed="0.00" departDelay="-0.03" arrival="278.70" arrivalLane="-119417247#3_0" arrivalPos="75.94" arrivalPosLat="0.00" arrivalSpeed="5.37" duration="239.70" routeLength="1032.32" waitingTime="29.30" waitingCount="3" stopTime="0.00" timeLoss="53.79" rerouteNo="0" devices="tripinfo_bike_6.0 routing_bike_6.0" vType="bike" speedFactor="1.10" vaporized=""/>
    <tripinfo id="bike_15.0.2" depart="8.50" departLane="120209283#1_0" departPos="1.02" departPosLat="0.00" departSpeed="0.00" departDelay="-0.05" arrival="279.10" arrivalLane="-119417247#3_0" arrivalPos="75.94" arrivalPosLat="1.10" arrivalSpeed="5.20" duration="270.60" routeLength="1298.75" waitingTime="14.90" waitingCount="1" stopTime="0.00" timeLoss="36.73" rerouteNo="0" devices="tripinfo_bike_15.0.2 routing_bike_15.0.2" vType="bike" speedFactor="0.89" vaporized=""/>